                         Program Version 4.2.1 -  RELEASE  -
|  1> ! HF 6-31G* opt
|  2>
|  3> %scf MaxIter 300 end
|  4> #%maxcore 2000
|  5> #%pal nprocs 10 end
|  6>
|  7> %geom scan
|  8> #dihedral
|  9> #atom number starts from zero
| 10> D 5 1 0 3 = 0, 360, 42
| 11> end
| 12> end
| 13>
| 14> *xyzfile 0 1 ethane.xyz
| 15> %base "dihedral"
| 16>
| 17>
| 18>                          ****END OF INPUT****
 Total Charge           Charge          ....    0
 Multiplicity           Mult            ....    1
 Number of Electrons    NEL             ....   18
FINAL SINGLE POINT ENERGY       -79.221498261070
FINAL SINGLE POINT ENERGY       -79.223128185262
FINAL SINGLE POINT ENERGY       -79.223418668482
FINAL SINGLE POINT ENERGY       -79.223482995901
FINAL SINGLE POINT ENERGY       -79.223485742179
                    ***********************HURRAY********************
FINAL SINGLE POINT ENERGY       -79.223486833097
FINAL SINGLE POINT ENERGY       -79.222313348285
FINAL SINGLE POINT ENERGY       -79.223187872367
FINAL SINGLE POINT ENERGY       -79.223742505623
FINAL SINGLE POINT ENERGY       -79.223753320834
                    ***********************HURRAY********************
FINAL SINGLE POINT ENERGY       -79.223741681485
FINAL SINGLE POINT ENERGY       -79.223753442805
FINAL SINGLE POINT ENERGY       -79.223754383656
FINAL SINGLE POINT ENERGY       -79.223754448283
FINAL SINGLE POINT ENERGY       -79.222071733910
FINAL SINGLE POINT ENERGY       -79.222930700342
FINAL SINGLE POINT ENERGY       -79.223473748109
FINAL SINGLE POINT ENERGY       -79.223485846132
FINAL SINGLE POINT ENERGY       -79.223486888296

CARTESIAN COORDINATES (ANGSTROEM)
---------------------------------
  C     -0.788686    0.109733   -0.267669
  C     -1.273828    1.549511   -0.010323
  H     -1.488322   -0.444215   -0.884280
  H      0.168953    0.095049   -0.776844
  H     -0.668639   -0.443609    0.657489
  H     -0.568210    2.282764   -0.385811
  H     -2.225544    1.743551   -0.493129
  H     -1.405725    1.744216    1.048568

 Multiplicity           Mult            ....    1
 Number of Electrons    NEL             ....   18
 Basis Dimension        Dim             ....   40

ORBITAL ENERGIES
----------------

  NO   OCC          E(Eh)            E(eV)
   0   2.0000     -11.205980      -304.9302
   1   2.0000     -11.205447      -304.9157
   2   2.0000      -1.014508       -27.6062
   3   2.0000      -0.845900       -23.0181
   4   2.0000      -0.595970       -16.2172
   5   2.0000      -0.595968       -16.2171
   6   2.0000      -0.508128       -13.8269
   7   2.0000      -0.486257       -13.2317
   8   2.0000      -0.486256       -13.2317
   9   0.0000       0.244051         6.6410
  10   0.0000       0.284287         7.7359
  11   0.0000       0.284289         7.7359
  12   0.0000       0.301120         8.1939
  13   0.0000       0.395532        10.7630

MULLIKEN ATOMIC CHARGES
-----------------------
   0 C :   -0.502059
   1 C :   -0.502059
   2 H :    0.167349
   3 H :    0.167352
   4 H :    0.167359
   5 H :    0.167352
   6 H :    0.167359
   7 H :    0.167349
Sum of atomic charges:    0.0000000

LOEWDIN ATOMIC CHARGES
----------------------
   0 C :   -0.371710
   1 C :   -0.371710
   2 H :    0.123901
   3 H :    0.123903
   4 H :    0.123906
   5 H :    0.123903
   6 H :    0.123906
   7 H :    0.123901

  Mayer bond orders larger than 0.100000
B(  0-C ,  1-C ) :   0.9498 B(  0-C ,  2-H ) :   0.9626 B(  0-C ,  3-H ) :   0.9626
B(  0-C ,  4-H ) :   0.9626 B(  1-C ,  5-H ) :   0.9626 B(  1-C ,  6-H ) :   0.9626
B(  1-C ,  7-H ) :   0.9626

FINAL SINGLE POINT ENERGY       -79.223486955965

DIPOLE MOMENT
-------------
                                X             Y             Z
Electronic contribution:     -0.00004      -0.00002       0.00002
Nuclear contribution   :      0.00004       0.00002      -0.00002
                        -----------------------------------------
Total Dipole Moment    :      0.00000       0.00000      -0.00000
                        -----------------------------------------
Magnitude (a.u.)       :      0.00000
Magnitude (Debye)      :      0.00000

Rotational constants in cm-1:     2.742555     0.657898     0.657897
Rotational constants in MHz : 82219.739991 19723.279732 19723.245028

                             ****ORCA TERMINATED NORMALLY****
TOTAL RUN TIME: 0 days 0 hours 4 minutes 29 seconds 680 msec
