                         Program Version 4.2.1 -  RELEASE  -
|  1> ! HF 3-21G Opt
|  2> %geom Scan
|  3> B 1 0 = 0.5, 10.0, 50
|  4> # Scan the bond between atom 0 and atom 1
|  5> # from distance 0.5  ̊A to 10.0  ̊A in 50 points.
|  6> end
|  7> end
|  8> *xyzfile 0 1 hydrogen.xyz
|  9>
| 10>
| 11>
| 12>                          ****END OF INPUT****
 Total Charge           Charge          ....    0
 Multiplicity           Mult            ....    1
 Number of Electrons    NEL             ....    2
FINAL SINGLE POINT ENERGY        -1.050801399624
                    ***********************HURRAY********************
FINAL SINGLE POINT ENERGY        -1.050801399624
FINAL SINGLE POINT ENERGY        -1.121607835380
                    ***********************HURRAY********************
FINAL SINGLE POINT ENERGY        -1.121607835380
FINAL SINGLE POINT ENERGY        -1.110163964487
FINAL SINGLE POINT ENERGY        -1.110163964488
FINAL SINGLE POINT ENERGY        -1.075695006120
FINAL SINGLE POINT ENERGY        -1.075695006120
FINAL SINGLE POINT ENERGY        -1.036498312189
FINAL SINGLE POINT ENERGY        -1.036498312190
FINAL SINGLE POINT ENERGY        -0.714672371993
FINAL SINGLE POINT ENERGY        -0.714672371993
FINAL SINGLE POINT ENERGY        -0.714081925327
FINAL SINGLE POINT ENERGY        -0.714081925327
FINAL SINGLE POINT ENERGY        -0.713515297088
FINAL SINGLE POINT ENERGY        -0.713515297088
FINAL SINGLE POINT ENERGY        -0.712971074560
FINAL SINGLE POINT ENERGY        -0.712971074560
FINAL SINGLE POINT ENERGY        -0.712447954524

CARTESIAN COORDINATES (ANGSTROEM)
---------------------------------
  H     -8.293929    1.657827    0.000000
  H      1.687599    1.050283    0.000000

 Multiplicity           Mult            ....    1
 Number of Electrons    NEL             ....    2
 Basis Dimension        Dim             ....    4

ORBITAL ENERGIES
----------------

  NO   OCC          E(Eh)            E(eV)
   0   2.0000      -0.222148        -6.0450
   1   0.0000      -0.169231        -4.6050
   2   0.0000       1.137569        30.9548
   3   0.0000       1.137569        30.9548

MULLIKEN ATOMIC CHARGES
-----------------------
   0 H :    0.000000
   1 H :   -0.000000
Sum of atomic charges:   -0.0000000

LOEWDIN ATOMIC CHARGES
----------------------
   0 H :    0.000000
   1 H :   -0.000000

  Mayer bond orders larger than 0.100000
B(  0-H ,  1-H ) :   1.0000

FINAL SINGLE POINT ENERGY        -0.712447954524

DIPOLE MOMENT
-------------
                                X             Y             Z
Electronic contribution:     -0.00000       0.00000      -0.00000
Nuclear contribution   :      0.00000       0.00000       0.00000
                        -----------------------------------------
Total Dipole Moment    :     -0.00000       0.00000       0.00000
                        -----------------------------------------
Magnitude (a.u.)       :      0.00000
Magnitude (Debye)      :      0.00000

Rotational constants in cm-1:     0.000000     0.334477     0.334477
Rotational constants in MHz :     0.000000 10027.370628 10027.370628

                             ****ORCA TERMINATED NORMALLY****
TOTAL RUN TIME: 0 days 0 hours 1 minutes 1 seconds 965 msec
