                         Program Version 4.2.1 -  RELEASE  -
|  1> ! HF 3-21G Opt
|  2>
|  3> *xyzfile 0 1 ../single_point_energy/hydrogen.xyz
|  4> %base "optimisation321hydrogen""                         ****END OF INPUT****
 Total Charge           Charge          ....    0
 Multiplicity           Mult            ....    1
 Number of Electrons    NEL             ....    2
FINAL SINGLE POINT ENERGY        -0.854368050739
FINAL SINGLE POINT ENERGY        -0.872891467181
FINAL SINGLE POINT ENERGY        -0.893527552579
FINAL SINGLE POINT ENERGY        -0.916399587058
FINAL SINGLE POINT ENERGY        -0.941592846905
FINAL SINGLE POINT ENERGY        -0.969098883869
FINAL SINGLE POINT ENERGY        -0.998742931879
FINAL SINGLE POINT ENERGY        -1.030101628850
FINAL SINGLE POINT ENERGY        -1.062309104765
FINAL SINGLE POINT ENERGY        -1.093284096003
FINAL SINGLE POINT ENERGY        -1.117338131781
FINAL SINGLE POINT ENERGY        -1.119636719941
FINAL SINGLE POINT ENERGY        -1.122741892230
FINAL SINGLE POINT ENERGY        -1.122951860569
FINAL SINGLE POINT ENERGY        -1.122959809973
                    ***********************HURRAY********************

CARTESIAN COORDINATES (ANGSTROEM)
---------------------------------
  H     -4.983832    1.650844    0.000000
  H     -4.254728    1.742356    0.000000

 Multiplicity           Mult            ....    1
 Number of Electrons    NEL             ....    2
 Basis Dimension        Dim             ....    4

ORBITAL ENERGIES
----------------

  NO   OCC          E(Eh)            E(eV)
   0   2.0000      -0.594236       -16.1700
   1   0.0000       0.265704         7.2302
   2   0.0000       0.917514        24.9668
   3   0.0000       1.531936        41.6861

MULLIKEN ATOMIC CHARGES
-----------------------
   0 H :   -0.000000
   1 H :    0.000000
Sum of atomic charges:    0.0000000

LOEWDIN ATOMIC CHARGES
----------------------
   0 H :   -0.000000
   1 H :    0.000000

  Mayer bond orders larger than 0.100000
B(  0-H ,  1-H ) :   1.0000

FINAL SINGLE POINT ENERGY        -1.122959835060

DIPOLE MOMENT
-------------
                                X             Y             Z
Electronic contribution:      0.00000      -0.00000      -0.00000
Nuclear contribution   :     -0.00000       0.00000       0.00000
                        -----------------------------------------
Total Dipole Moment    :      0.00000      -0.00000       0.00000
                        -----------------------------------------
Magnitude (a.u.)       :      0.00000
Magnitude (Debye)      :      0.00000

Rotational constants in cm-1:     0.000000    61.943903    61.943903
Rotational constants in MHz :     0.000000 1857031.482423 1857031.482423

                             ****ORCA TERMINATED NORMALLY****
TOTAL RUN TIME: 0 days 0 hours 0 minutes 12 seconds 571 msec
