                         Program Version 4.2.1 -  RELEASE  -
|  1> ! DFT B3LYP Opt
|  2>
|  3> *xyzfile 0 1 ../single_point_energy/hydrogen.xyz
|  4> %base "optimisationDFTB3hydrogen""                         ****END OF INPUT****
 Total Charge           Charge          ....    0
 Multiplicity           Mult            ....    1
 Number of Electrons    NEL             ....    2
FINAL SINGLE POINT ENERGY        -0.956529589031
FINAL SINGLE POINT ENERGY        -0.968341362172
FINAL SINGLE POINT ENERGY        -0.982209379162
FINAL SINGLE POINT ENERGY        -0.998408202592
FINAL SINGLE POINT ENERGY        -1.017195861910
FINAL SINGLE POINT ENERGY        -1.038752683485
FINAL SINGLE POINT ENERGY        -1.063078304028
FINAL SINGLE POINT ENERGY        -1.089839534572
FINAL SINGLE POINT ENERGY        -1.118006838014
FINAL SINGLE POINT ENERGY        -1.144941473003
FINAL SINGLE POINT ENERGY        -1.164276879164
FINAL SINGLE POINT ENERGY        -1.164016340447
FINAL SINGLE POINT ENERGY        -1.166935503717
FINAL SINGLE POINT ENERGY        -1.167024323487
FINAL SINGLE POINT ENERGY        -1.167027286943
                    ***********************HURRAY********************

CARTESIAN COORDINATES (ANGSTROEM)
---------------------------------
  H     -4.996805    1.649216    0.000000
  H     -4.241755    1.743984    0.000000

 Multiplicity           Mult            ....    1
 Number of Electrons    NEL             ....    2
 Basis Dimension        Dim             ....   10

ORBITAL ENERGIES
----------------

  NO   OCC          E(Eh)            E(eV)
   0   2.0000      -0.422269       -11.4905
   1   0.0000       0.074050         2.0150
   2   0.0000       0.334870         9.1123
   3   0.0000       0.715999        19.4833
   4   0.0000       1.169744        31.8303
   5   0.0000       1.169752        31.8306

MULLIKEN ATOMIC CHARGES
-----------------------
   0 H :   -0.000000
   1 H :    0.000000
Sum of atomic charges:    0.0000000

LOEWDIN ATOMIC CHARGES
----------------------
   0 H :   -0.000000
   1 H :    0.000000

  Mayer bond orders larger than 0.100000
B(  0-H ,  1-H ) :   1.0000

FINAL SINGLE POINT ENERGY        -1.167027305508

DIPOLE MOMENT
-------------
                                X             Y             Z
Electronic contribution:     -0.00000      -0.00000       0.00000
Nuclear contribution   :      0.00000      -0.00000       0.00000
                        -----------------------------------------
Total Dipole Moment    :     -0.00000      -0.00000       0.00000
                        -----------------------------------------
Magnitude (a.u.)       :      0.00000
Magnitude (Debye)      :      0.00000

Rotational constants in cm-1:     0.000000    57.760032    57.760032
Rotational constants in MHz :     0.000000 1731602.193041 1731602.193041

                             ****ORCA TERMINATED NORMALLY****
TOTAL RUN TIME: 0 days 0 hours 0 minutes 13 seconds 603 msec
