                         Program Version 4.2.1 -  RELEASE  -
|  1> ! DFT B3LYP D3 Opt
|  2>
|  3> *xyzfile 0 1 ../single_point_energy/hydrogen.xyz
|  4> %base "optimisationDFTB3D3hydrogen""                         ****END OF INPUT****
 Total Charge           Charge          ....    0
 Multiplicity           Mult            ....    1
 Number of Electrons    NEL             ....    2
Dispersion correction           -0.000276164
FINAL SINGLE POINT ENERGY        -0.956805753328
Dispersion correction            ... done
Dispersion correction           -0.000293735
FINAL SINGLE POINT ENERGY        -0.968635097609
Dispersion correction            ... done
Dispersion correction           -0.000306806
FINAL SINGLE POINT ENERGY        -0.982516185257
Dispersion correction            ... done
FINAL SINGLE POINT ENERGY        -0.998724206321
FINAL SINGLE POINT ENERGY        -1.017518007058
FINAL SINGLE POINT ENERGY        -1.039078716547
FINAL SINGLE POINT ENERGY        -1.063406642565
FINAL SINGLE POINT ENERGY        -1.090169046381
FINAL SINGLE POINT ENERGY        -1.118336252556
FINAL SINGLE POINT ENERGY        -1.145263681632
FINAL SINGLE POINT ENERGY        -1.164453885682
FINAL SINGLE POINT ENERGY        -1.164475516997
FINAL SINGLE POINT ENERGY        -1.167079105726
Dispersion correction            ... done
Dispersion correction           -0.000142783
FINAL SINGLE POINT ENERGY        -1.167167075919
Dispersion correction            ... done
Dispersion correction           -0.000142481
FINAL SINGLE POINT ENERGY        -1.167169788969
Dispersion correction            ... done
                    ***********************HURRAY********************

CARTESIAN COORDINATES (ANGSTROEM)
---------------------------------
  H     -4.996854    1.649210    0.000000
  H     -4.241706    1.743990    0.000000

 Multiplicity           Mult            ....    1
 Number of Electrons    NEL             ....    2
 Basis Dimension        Dim             ....   10

ORBITAL ENERGIES
----------------

  NO   OCC          E(Eh)            E(eV)
   0   2.0000      -0.422249       -11.4900
   1   0.0000       0.074027         2.0144
   2   0.0000       0.334890         9.1128
   3   0.0000       0.715930        19.4814
   4   0.0000       1.169740        31.8302
   5   0.0000       1.169749        31.8305

MULLIKEN ATOMIC CHARGES
-----------------------
   0 H :   -0.000000
   1 H :    0.000000
Sum of atomic charges:   -0.0000000

LOEWDIN ATOMIC CHARGES
----------------------
   0 H :   -0.000000
   1 H :    0.000000

  Mayer bond orders larger than 0.100000
B(  0-H ,  1-H ) :   1.0000

Dispersion correction           -0.000142491
FINAL SINGLE POINT ENERGY        -1.167169807141

DIPOLE MOMENT
-------------
                                X             Y             Z
Electronic contribution:     -0.00000       0.00000      -0.00000
Nuclear contribution   :      0.00000      -0.00000       0.00000
                        -----------------------------------------
Total Dipole Moment    :     -0.00000      -0.00000      -0.00000
                        -----------------------------------------
Magnitude (a.u.)       :      0.00000
Magnitude (Debye)      :      0.00000

Rotational constants in cm-1:     0.000000    57.745033    57.745033
Rotational constants in MHz :     0.000000 1731152.550455 1731152.550455

                             ****ORCA TERMINATED NORMALLY****
TOTAL RUN TIME: 0 days 0 hours 0 minutes 15 seconds 30 msec
