                         Program Version 4.2.1 -  RELEASE  -
|  1> ! DFT B3LYP D3 Opt
|  2>
|  3> *xyzfile 0 1 ../single_point_energy/water/water.xyz
|  4> %base "optimisationDFTB3D3""                         ****END OF INPUT****
 Total Charge           Charge          ....    0
 Multiplicity           Mult            ....    1
 Number of Electrons    NEL             ....   10
Dispersion correction           -0.001069462
FINAL SINGLE POINT ENERGY       -76.068211020061
Dispersion correction            ... done
Dispersion correction           -0.001087849
FINAL SINGLE POINT ENERGY       -76.110416041921
Dispersion correction            ... done
Dispersion correction           -0.001081331
FINAL SINGLE POINT ENERGY       -76.155937851923
Dispersion correction            ... done
FINAL SINGLE POINT ENERGY       -76.203542870207
FINAL SINGLE POINT ENERGY       -76.250686928025
FINAL SINGLE POINT ENERGY       -76.292385590433
FINAL SINGLE POINT ENERGY       -76.318580387167
FINAL SINGLE POINT ENERGY       -76.320518748160
FINAL SINGLE POINT ENERGY       -76.317930215921
FINAL SINGLE POINT ENERGY       -76.314128928570
FINAL SINGLE POINT ENERGY       -76.321320204377
FINAL SINGLE POINT ENERGY       -76.321693340280
Dispersion correction            ... done
Dispersion correction           -0.000573950
FINAL SINGLE POINT ENERGY       -76.321736993105
Dispersion correction            ... done
Dispersion correction           -0.000573949
FINAL SINGLE POINT ENERGY       -76.321737441557
Dispersion correction            ... done
                    ***********************HURRAY********************

CARTESIAN COORDINATES (ANGSTROEM)
---------------------------------
  O     -2.979489    2.012654   -0.125481
  H     -2.188289    1.714878    0.344010
  H     -2.623732    2.364029   -0.953039

 Multiplicity           Mult            ....    1
 Number of Electrons    NEL             ....   10
 Basis Dimension        Dim             ....   24

ORBITAL ENERGIES
----------------

  NO   OCC          E(Eh)            E(eV)
   0   2.0000     -19.116516      -520.1868
   1   2.0000      -0.976261       -26.5654
   2   2.0000      -0.508038       -13.8244
   3   2.0000      -0.364416        -9.9163
   4   2.0000      -0.288531        -7.8513
   5   0.0000       0.047719         1.2985
   6   0.0000       0.126997         3.4558
   7   0.0000       0.558213        15.1897
   8   0.0000       0.623378        16.9630
   9   0.0000       0.920332        25.0435

MULLIKEN ATOMIC CHARGES
-----------------------
   0 O :   -0.295990
   1 H :    0.147912
   2 H :    0.148078
Sum of atomic charges:    0.0000000

LOEWDIN ATOMIC CHARGES
----------------------
   0 O :   -0.150953
   1 H :    0.075482
   2 H :    0.075472

  Mayer bond orders larger than 0.100000
B(  0-O ,  1-H ) :   1.0079 B(  0-O ,  2-H ) :   1.0075

Dispersion correction           -0.000573949
FINAL SINGLE POINT ENERGY       -76.321737461701

DIPOLE MOMENT
-------------
                                X             Y             Z
Electronic contribution:     -0.20173      -0.00967       0.06299
Nuclear contribution   :      0.95468       0.04461      -0.29804
                        -----------------------------------------
Total Dipole Moment    :      0.75295       0.03494      -0.23505
                        -----------------------------------------
Magnitude (a.u.)       :      0.78956
Magnitude (Debye)      :      2.00690

Rotational constants in cm-1:    26.035207    14.584681     9.348012
Rotational constants in MHz : 780515.878856 437237.725687 280246.337568

                             ****ORCA TERMINATED NORMALLY****
TOTAL RUN TIME: 0 days 0 hours 0 minutes 20 seconds 426 msec
