                         Program Version 4.2.1 -  RELEASE  -
|  1> ! HF 6-31G Opt
|  2>
|  3> *xyzfile 0 1 ../single_point_energy/water/water.xyz
|  4> %base "optimisation631""                         ****END OF INPUT****
 Total Charge           Charge          ....    0
 Multiplicity           Mult            ....    1
 Number of Electrons    NEL             ....   10
FINAL SINGLE POINT ENERGY       -75.688180575665
FINAL SINGLE POINT ENERGY       -75.738303306943
FINAL SINGLE POINT ENERGY       -75.790799542368
FINAL SINGLE POINT ENERGY       -75.844641124794
FINAL SINGLE POINT ENERGY       -75.897613046198
FINAL SINGLE POINT ENERGY       -75.945064003537
FINAL SINGLE POINT ENERGY       -75.977832948587
FINAL SINGLE POINT ENERGY       -75.982461919649
FINAL SINGLE POINT ENERGY       -75.963410588429
FINAL SINGLE POINT ENERGY       -75.978247234535
FINAL SINGLE POINT ENERGY       -75.982256541324
FINAL SINGLE POINT ENERGY       -75.985154777654
FINAL SINGLE POINT ENERGY       -75.985350222731
FINAL SINGLE POINT ENERGY       -75.985358971466
FINAL SINGLE POINT ENERGY       -75.985359173045
                    ***********************HURRAY********************

CARTESIAN COORDINATES (ANGSTROEM)
---------------------------------
  O     -2.936788    2.014705   -0.138931
  H     -2.201943    1.701843    0.374806
  H     -2.652779    2.375012   -0.970386

 Multiplicity           Mult            ....    1
 Number of Electrons    NEL             ....   10
 Basis Dimension        Dim             ....   13

ORBITAL ENERGIES
----------------

  NO   OCC          E(Eh)            E(eV)
   0   2.0000     -20.553483      -559.2887
   1   2.0000      -1.352528       -36.8042
   2   2.0000      -0.726375       -19.7657
   3   2.0000      -0.548235       -14.9182
   4   2.0000      -0.498297       -13.5594
   5   0.0000       0.206985         5.6323
   6   0.0000       0.302906         8.2425
   7   0.0000       1.105456        30.0810
   8   0.0000       1.161215        31.5983
   9   0.0000       1.167167        31.7602

MULLIKEN ATOMIC CHARGES
-----------------------
   0 O :   -0.811239
   1 H :    0.405619
   2 H :    0.405620
Sum of atomic charges:   -0.0000000

LOEWDIN ATOMIC CHARGES
----------------------
   0 O :   -0.591897
   1 H :    0.295949
   2 H :    0.295948

  Mayer bond orders larger than 0.100000
B(  0-O ,  1-H ) :   0.7924 B(  0-O ,  2-H ) :   0.7924

FINAL SINGLE POINT ENERGY       -75.985359176241

DIPOLE MOMENT
-------------
                                X             Y             Z
Electronic contribution:      0.09021       0.00420      -0.02813
Nuclear contribution   :      0.84806       0.03949      -0.26446
                        -----------------------------------------
Total Dipole Moment    :      0.93827       0.04369      -0.29259
                        -----------------------------------------
Magnitude (a.u.)       :      0.98380
Magnitude (Debye)      :      2.50063

Rotational constants in cm-1:    33.000639    13.563808     9.612792
Rotational constants in MHz : 989334.270852 406632.723201 288184.241050

                             ****ORCA TERMINATED NORMALLY****
TOTAL RUN TIME: 0 days 0 hours 0 minutes 18 seconds 68 msec
