                         Program Version 4.2.1 -  RELEASE  -
|  1> ! DFT B3LYP Opt
|  2>
|  3> *xyzfile 0 1 ../single_point_energy/water/water.xyz
|  4> %base "optimisationDFTB3""                         ****END OF INPUT****
 Total Charge           Charge          ....    0
 Multiplicity           Mult            ....    1
 Number of Electrons    NEL             ....   10
FINAL SINGLE POINT ENERGY       -76.067141558067
FINAL SINGLE POINT ENERGY       -76.109328375561
FINAL SINGLE POINT ENERGY       -76.154857318577
FINAL SINGLE POINT ENERGY       -76.202590902699
FINAL SINGLE POINT ENERGY       -76.249974381019
FINAL SINGLE POINT ENERGY       -76.291796092569
FINAL SINGLE POINT ENERGY       -76.318006368806
FINAL SINGLE POINT ENERGY       -76.319936095340
FINAL SINGLE POINT ENERGY       -76.316835073746
FINAL SINGLE POINT ENERGY       -76.314587086802
FINAL SINGLE POINT ENERGY       -76.320674427134
FINAL SINGLE POINT ENERGY       -76.321131233496
FINAL SINGLE POINT ENERGY       -76.321163134930
FINAL SINGLE POINT ENERGY       -76.321163495782
                    ***********************HURRAY********************

CARTESIAN COORDINATES (ANGSTROEM)
---------------------------------
  O     -2.979479    2.012648   -0.125470
  H     -2.188263    1.714880    0.344000
  H     -2.623767    2.364033   -0.953040

 Multiplicity           Mult            ....    1
 Number of Electrons    NEL             ....   10
 Basis Dimension        Dim             ....   24

ORBITAL ENERGIES
----------------

  NO   OCC          E(Eh)            E(eV)
   0   2.0000     -19.116515      -520.1868
   1   2.0000      -0.976261       -26.5654
   2   2.0000      -0.508040       -13.8245
   3   2.0000      -0.364413        -9.9162
   4   2.0000      -0.288531        -7.8513
   5   0.0000       0.047719         1.2985
   6   0.0000       0.126998         3.4558
   7   0.0000       0.558216        15.1898
   8   0.0000       0.623375        16.9629
   9   0.0000       0.920332        25.0435

MULLIKEN ATOMIC CHARGES
-----------------------
   0 O :   -0.295993
   1 H :    0.147914
   2 H :    0.148079
Sum of atomic charges:    0.0000000

LOEWDIN ATOMIC CHARGES
----------------------
   0 O :   -0.150953
   1 H :    0.075482
   2 H :    0.075471

  Mayer bond orders larger than 0.100000
B(  0-O ,  1-H ) :   1.0079 B(  0-O ,  2-H ) :   1.0075

FINAL SINGLE POINT ENERGY       -76.321163513628

DIPOLE MOMENT
-------------
                                X             Y             Z
Electronic contribution:     -0.20172      -0.00967       0.06300
Nuclear contribution   :      0.95466       0.04463      -0.29807
                        -----------------------------------------
Total Dipole Moment    :      0.75294       0.03496      -0.23507
                        -----------------------------------------
Magnitude (a.u.)       :      0.78955
Magnitude (Debye)      :      2.00689

Rotational constants in cm-1:    26.035912    14.584478     9.348019
Rotational constants in MHz : 780537.009547 437231.646509 280246.564196

                             ****ORCA TERMINATED NORMALLY****
TOTAL RUN TIME: 0 days 0 hours 0 minutes 18 seconds 872 msec
