                         Program Version 4.2.1 -  RELEASE  -
|  1> ! HF 3-21G Opt
|  2>
|  3> *xyzfile 0 1 ../single_point_energy/water/water.xyz
|  4> %base "optimisation""                         ****END OF INPUT****
 Total Charge           Charge          ....    0
 Multiplicity           Mult            ....    1
 Number of Electrons    NEL             ....   10
FINAL SINGLE POINT ENERGY       -75.298427839058
FINAL SINGLE POINT ENERGY       -75.350971510459
FINAL SINGLE POINT ENERGY       -75.405302786699
FINAL SINGLE POINT ENERGY       -75.459765212416
FINAL SINGLE POINT ENERGY       -75.511439731571
FINAL SINGLE POINT ENERGY       -75.555277602708
FINAL SINGLE POINT ENERGY       -75.582224311451
FINAL SINGLE POINT ENERGY       -75.584839639611
FINAL SINGLE POINT ENERGY       -75.576542693246
FINAL SINGLE POINT ENERGY       -75.583358786224
FINAL SINGLE POINT ENERGY       -75.584092294155
FINAL SINGLE POINT ENERGY       -75.585932051051
FINAL SINGLE POINT ENERGY       -75.585959315534
FINAL SINGLE POINT ENERGY       -75.585959741971
                    ***********************HURRAY********************

CARTESIAN COORDINATES (ANGSTROEM)
---------------------------------
  O     -2.960047    2.013993   -0.132473
  H     -2.193312    1.704137    0.368064
  H     -2.638152    2.373430   -0.970102

 Multiplicity           Mult            ....    1
 Number of Electrons    NEL             ....   10
 Basis Dimension        Dim             ....   13

ORBITAL ENERGIES
----------------

  NO   OCC          E(Eh)            E(eV)
   0   2.0000     -20.427215      -555.8528
   1   2.0000      -1.320970       -35.9454
   2   2.0000      -0.685541       -18.6545
   3   2.0000      -0.529830       -14.4174
   4   2.0000      -0.477233       -12.9862
   5   0.0000       0.261075         7.1042
   6   0.0000       0.360333         9.8052
   7   0.0000       1.206663        32.8350
   8   0.0000       1.276662        34.7397
   9   0.0000       1.783971        48.5443

MULLIKEN ATOMIC CHARGES
-----------------------
   0 O :   -0.732840
   1 H :    0.366420
   2 H :    0.366420
Sum of atomic charges:   -0.0000000

LOEWDIN ATOMIC CHARGES
----------------------
   0 O :   -0.470340
   1 H :    0.235169
   2 H :    0.235170

  Mayer bond orders larger than 0.100000
B(  0-O ,  1-H ) :   0.8275 B(  0-O ,  2-H ) :   0.8275

FINAL SINGLE POINT ENERGY       -75.585959742864

DIPOLE MOMENT
-------------
                                X             Y             Z
Electronic contribution:     -0.00975      -0.00044       0.00302
Nuclear contribution   :      0.90613       0.04127      -0.28058
                        -----------------------------------------
Total Dipole Moment    :      0.89638       0.04083      -0.27756
                        -----------------------------------------
Magnitude (a.u.)       :      0.93926
Magnitude (Debye)      :      2.38740

Rotational constants in cm-1:    28.944235    13.727637     9.311425
Rotational constants in MHz : 867726.332079 411544.205779 279149.510288

                             ****ORCA TERMINATED NORMALLY****
TOTAL RUN TIME: 0 days 0 hours 0 minutes 18 seconds 381 msec
