                         Program Version 4.2.1 -  RELEASE  -
|  1> #Hartree Fock
|  2> !HF DEF2-SVP
|  3>
|  4> #filename
|  5>
|  6> *xyzfile 0 1 water.xyz
|  7> %base "single_point_water""                         ****END OF INPUT****

CARTESIAN COORDINATES (ANGSTROEM)
---------------------------------
  O     -3.319480    1.987730    0.000000
  H     -1.893830    1.527550    0.682490
  H     -2.578200    2.576280   -1.417000

 Total Charge           Charge          ....    0
 Multiplicity           Mult            ....    1
 Number of Electrons    NEL             ....   10
 Basis Dimension        Dim             ....   24

ORBITAL ENERGIES
----------------

  NO   OCC          E(Eh)            E(eV)
   0   2.0000     -20.646725      -561.8260
   1   2.0000      -1.182673       -32.1822
   2   2.0000      -0.507803       -13.8180
   3   2.0000      -0.473073       -12.8730
   4   2.0000      -0.457401       -12.4465
   5   0.0000       0.024400         0.6640
   6   0.0000       0.050997         1.3877
   7   0.0000       0.604311        16.4441
   8   0.0000       0.630351        17.1527
   9   0.0000       1.116265        30.3751

MULLIKEN ATOMIC CHARGES
-----------------------
   0 O :   -0.418588
   1 H :    0.218290
   2 H :    0.200297
Sum of atomic charges:   -0.0000000

LOEWDIN ATOMIC CHARGES
----------------------
   0 O :   -0.373731
   1 H :    0.193115
   2 H :    0.180617

  Mayer bond orders larger than 0.100000
B(  0-O ,  1-H ) :   0.9473 B(  0-O ,  2-H ) :   0.9549

FINAL SINGLE POINT ENERGY       -75.633213613675

DIPOLE MOMENT
-------------
                                X             Y             Z
Electronic contribution:     -0.87032      -0.06933       0.33304
Nuclear contribution   :      1.80367       0.10685      -0.61138
                        -----------------------------------------
Total Dipole Moment    :      0.93335       0.03752      -0.27834
                        -----------------------------------------
Magnitude (a.u.)       :      0.97469
Magnitude (Debye)      :      2.47746

Rotational constants in cm-1:     7.210185     5.573702     3.143600
Rotational constants in MHz : 216155.909697 167095.391340 94242.749401

                             ****ORCA TERMINATED NORMALLY****
TOTAL RUN TIME: 0 days 0 hours 0 minutes 1 seconds 567 msec
