                         Program Version 4.2.1 -  RELEASE  -
|  1> #Hartree Fock
|  2> !HF DEF2-SVP
|  3>
|  4> #filename
|  5>
|  6> *xyzfile 0 1 water.xyz
|  7> %base "single_point_water""                         ****END OF INPUT****

CARTESIAN COORDINATES (ANGSTROEM)
---------------------------------
  O     -3.319480    1.987730    0.000000
  H     -1.893830    1.527550    0.682490
  H     -2.578200    2.576280   -1.417000

 Total Charge           Charge          ....    0
 Multiplicity           Mult            ....    1
 Number of Electrons    NEL             ....   10
 Basis Dimension        Dim             ....   24

ORBITAL ENERGIES
----------------

  NO   OCC          E(Eh)            E(eV)
   0   2.0000     -20.646621      -561.8231
   1   2.0000      -1.182579       -32.1796
   2   2.0000      -0.507683       -13.8148
   3   2.0000      -0.473020       -12.8715
   4   2.0000      -0.457383       -12.4460
   5   0.0000       0.024423         0.6646
   6   0.0000       0.051014         1.3882
   7   0.0000       0.604303        16.4439
   8   0.0000       0.630322        17.1519
   9   0.0000       1.116343        30.3772

MULLIKEN ATOMIC CHARGES
-----------------------
   0 O :   -0.418549
   1 H :    0.218164
   2 H :    0.200385
Sum of atomic charges:   -0.0000000

LOEWDIN ATOMIC CHARGES
----------------------
   0 O :   -0.373706
   1 H :    0.193005
   2 H :    0.180701

  Mayer bond orders larger than 0.100000
B(  0-O ,  1-H ) :   0.9473 B(  0-O ,  2-H ) :   0.9549

FINAL SINGLE POINT ENERGY       -75.633213735111

DIPOLE MOMENT
-------------
                                X             Y             Z
Electronic contribution:     -0.87052      -0.06913       0.33265
Nuclear contribution   :      1.80367       0.10685      -0.61138
                        -----------------------------------------
Total Dipole Moment    :      0.93315       0.03772      -0.27873
                        -----------------------------------------
Magnitude (a.u.)       :      0.97462
Magnitude (Debye)      :      2.47729

Rotational constants in cm-1:     7.210185     5.573702     3.143600
Rotational constants in MHz : 216155.909697 167095.391340 94242.749401

                             ****ORCA TERMINATED NORMALLY****
TOTAL RUN TIME: 0 days 0 hours 0 minutes 0 seconds 688 msec
