                         Program Version 4.2.1 -  RELEASE  -
|  1> ! HF 6-31G* Opt Freq
|  2>
|  3> *xyzfile 0 1 ../single_point_energy/hydrogen.xyz
|  4> %base "frequencyHFHydrogen""                         ****END OF INPUT****
 Total Charge           Charge          ....    0
 Multiplicity           Mult            ....    1
 Number of Electrons    NEL             ....    2
FINAL SINGLE POINT ENERGY        -0.865222345742
FINAL SINGLE POINT ENERGY        -0.882887768074
FINAL SINGLE POINT ENERGY        -0.902605132346
FINAL SINGLE POINT ENERGY        -0.924506880824
FINAL SINGLE POINT ENERGY        -0.948682447450
FINAL SINGLE POINT ENERGY        -0.975151968069
FINAL SINGLE POINT ENERGY        -1.003827410939
FINAL SINGLE POINT ENERGY        -1.034408856354
FINAL SINGLE POINT ENERGY        -1.066077249410
FINAL SINGLE POINT ENERGY        -1.096688307871
FINAL SINGLE POINT ENERGY        -1.120742244068
FINAL SINGLE POINT ENERGY        -1.124034368435
FINAL SINGLE POINT ENERGY        -1.126600656640
FINAL SINGLE POINT ENERGY        -1.126820274846
FINAL SINGLE POINT ENERGY        -1.126827802048
                    ***********************HURRAY********************

CARTESIAN COORDINATES (ANGSTROEM)
---------------------------------
  H     -4.981420    1.651147    0.000000
  H     -4.257140    1.742053    0.000000

 Multiplicity           Mult            ....    1
 Number of Electrons    NEL             ....    2
 Basis Dimension        Dim             ....    4

ORBITAL ENERGIES
----------------

  NO   OCC          E(Eh)            E(eV)
   0   2.0000      -0.598878       -16.2963
   1   0.0000       0.241156         6.5622
   2   0.0000       0.769899        20.9500
   3   0.0000       1.417872        38.5822

MULLIKEN ATOMIC CHARGES
-----------------------
   0 H :    0.000000
   1 H :   -0.000000
Sum of atomic charges:   -0.0000000

LOEWDIN ATOMIC CHARGES
----------------------
   0 H :   -0.000000
   1 H :   -0.000000

  Mayer bond orders larger than 0.100000
B(  0-H ,  1-H ) :   1.0000

FINAL SINGLE POINT ENERGY        -1.126827828414

DIPOLE MOMENT
-------------
                                X             Y             Z
Electronic contribution:     -0.00000       0.00000      -0.00000
Nuclear contribution   :      0.00000       0.00000       0.00000
                        -----------------------------------------
Total Dipole Moment    :     -0.00000       0.00000       0.00000
                        -----------------------------------------
Magnitude (a.u.)       :      0.00000
Magnitude (Debye)      :      0.00000

VIBRATIONAL FREQUENCIES
-----------------------

Scaling factor for frequencies =  1.000000000  (already applied!)

   0:         0.00 cm**-1
   1:         0.00 cm**-1
   2:         0.00 cm**-1
   3:         0.00 cm**-1
   4:         0.00 cm**-1
   5:      4645.66 cm**-1

IR SPECTRUM
-----------

 Mode    freq (cm**-1)   T**2         TX         TY         TZ
-------------------------------------------------------------------
   5:      4645.66    0.000000  (  0.000000  -0.000000   0.000000)

--------------------------
THERMOCHEMISTRY AT 298.15K
--------------------------

Temperature         ... 298.15 K
Pressure            ... 1.00 atm
Total Mass          ... 2.02 AMU
The molecule is recognized as being linear

Throughout the following assumptions are being made:
  (1) The electronic state is orbitally nondegenerate
  (2) There are no thermally accessible electronically excited states
  (3) Hindered rotations indicated by low frequency modes are not
      treated as such but are treated as vibrations and this may
      cause some error
  (4) All equations used are the standard statistical mechanics
      equations for an ideal gas
  (5) All vibrations are strictly harmonic

freq.    4645.66  E(vib)   ...       0.00

------------
INNER ENERGY
------------

The inner energy is: U= E(el) + E(ZPE) + E(vib) + E(rot) + E(trans)
    E(el)   - is the total energy from the electronic structure calculation
              = E(kin-el) + E(nuc-el) + E(el-el) + E(nuc-nuc)
    E(ZPE)  - the the zero temperature vibrational energy from the frequency calculation
    E(vib)  - the the finite temperature correction to E(ZPE) due to population
              of excited vibrational states
    E(rot)  - is the rotational thermal energy
    E(trans)- is the translational thermal energy

Summary of contributions to the inner energy U:
Electronic energy                ...     -1.12682783 Eh
Zero point energy                ...      0.01058359 Eh       6.64 kcal/mol
Thermal vibrational correction   ...      0.00000000 Eh       0.00 kcal/mol
Thermal rotational correction    ...      0.00094418 Eh       0.59 kcal/mol
Thermal translational correction ...      0.00141627 Eh       0.89 kcal/mol
-----------------------------------------------------------------------
Total thermal energy                     -1.11388379 Eh

Summary of corrections to the electronic energy:
(perhaps to be used in another calculation)
Total thermal correction                  0.00236045 Eh       1.48 kcal/mol
Non-thermal (ZPE) correction              0.01058359 Eh       6.64 kcal/mol
-----------------------------------------------------------------------
Total correction                          0.01294404 Eh       8.12 kcal/mol

--------
ENTHALPY
--------

The enthalpy is H = U + kB*T
                kB is Boltzmann's constant
Total free energy                 ...     -1.11388379 Eh
Thermal Enthalpy correction       ...      0.00094421 Eh       0.59 kcal/mol
-----------------------------------------------------------------------
Total Enthalpy                    ...     -1.11293958 Eh

Note: Rotational entropy computed according to Herzberg
Infrared and Raman Spectra, Chapter V,1, Van Nostrand Reinhold, 1945
Point Group:  Dinfh, Symmetry Number:   2
Rotational constants in cm-1:     0.000000    62.772029    62.772029

Vibrational entropy computed according to the QRRHO of S. Grimme
Chem.Eur.J. 2012 18 9955

-------
ENTROPY
-------

The entropy contributions are T*S = T*(S(el)+S(vib)+S(rot)+S(trans))
     S(el)   - electronic entropy
     S(vib)  - vibrational entropy
     S(rot)  - rotational entropy
     S(trans)- translational entropy
The entropies will be listed as mutliplied by the temperature to get
units of energy

Electronic entropy                ...      0.00000000 Eh      0.00 kcal/mol
Vibrational entropy               ...     -0.00000000 Eh     -0.00 kcal/mol
Rotational entropy                ...      0.00141736 Eh      0.89 kcal/mol
Translational entropy             ...      0.01334204 Eh      8.37 kcal/mol
-----------------------------------------------------------------------
Final entropy term                ...      0.01475940 Eh      9.26 kcal/mol

In case the symmetry of your molecule has not been determined correctly
or in case you have a reason to use a different symmetry number we print
out the resulting rotational entropy values for sn=1,12 :
 --------------------------------------------------------
|  sn= 1 | S(rot)=      -0.01563857 Eh     -9.81 kcal/mol|
|  sn= 2 | S(rot)=      -0.01629303 Eh    -10.22 kcal/mol|
|  sn= 3 | S(rot)=      -0.01667586 Eh    -10.46 kcal/mol|
|  sn= 4 | S(rot)=      -0.01694748 Eh    -10.63 kcal/mol|
|  sn= 5 | S(rot)=      -0.01715817 Eh    -10.77 kcal/mol|
|  sn= 6 | S(rot)=      -0.01733031 Eh    -10.87 kcal/mol|
|  sn= 7 | S(rot)=      -0.01747586 Eh    -10.97 kcal/mol|
|  sn= 8 | S(rot)=      -0.01760194 Eh    -11.05 kcal/mol|
|  sn= 9 | S(rot)=      -0.01771315 Eh    -11.12 kcal/mol|
|  sn=10 | S(rot)=      -0.01781263 Eh    -11.18 kcal/mol|
|  sn=11 | S(rot)=      -0.01790262 Eh    -11.23 kcal/mol|
|  sn=12 | S(rot)=      -0.01798477 Eh    -11.29 kcal/mol|
 --------------------------------------------------------

-------------------
GIBBS FREE ENERGY
-------------------

The Gibbs free energy is G = H - T*S

Total enthalpy                    ...     -1.11293958 Eh
Total entropy correction          ...     -0.01475940 Eh     -9.26 kcal/mol
-----------------------------------------------------------------------
Final Gibbs free energy         ...     -1.12769898 Eh

For completeness - the Gibbs free energy minus the electronic energy
G-E(el)                           ...     -0.00087115 Eh     -0.55 kcal/mol

                             ****ORCA TERMINATED NORMALLY****
TOTAL RUN TIME: 0 days 0 hours 0 minutes 13 seconds 386 msec
