                         Program Version 4.2.1 -  RELEASE  -
|  1> ! DFT B3LYP 6-31G Opt Freq
|  2>
|  3> *xyzfile 0 1 ../single_point_energy/hydrogen.xyz
|  4> %base "frequencyHydrogenDFT""                         ****END OF INPUT****
 Total Charge           Charge          ....    0
 Multiplicity           Mult            ....    1
 Number of Electrons    NEL             ....    2
FINAL SINGLE POINT ENERGY        -0.952651810215
FINAL SINGLE POINT ENERGY        -0.964847536866
FINAL SINGLE POINT ENERGY        -0.979098548656
FINAL SINGLE POINT ENERGY        -0.995649244625
FINAL SINGLE POINT ENERGY        -1.014711176915
FINAL SINGLE POINT ENERGY        -1.036423548861
FINAL SINGLE POINT ENERGY        -1.060788520192
FINAL SINGLE POINT ENERGY        -1.087539361284
FINAL SINGLE POINT ENERGY        -1.115804642920
FINAL SINGLE POINT ENERGY        -1.143307263776
FINAL SINGLE POINT ENERGY        -1.164385271576
FINAL SINGLE POINT ENERGY        -1.164738459053
FINAL SINGLE POINT ENERGY        -1.168517640284
FINAL SINGLE POINT ENERGY        -1.168707441473
FINAL SINGLE POINT ENERGY        -1.168716357950
                    ***********************HURRAY********************

CARTESIAN COORDINATES (ANGSTROEM)
---------------------------------
  H     -4.987877    1.650337    0.000000
  H     -4.250683    1.742863    0.000000

 Multiplicity           Mult            ....    1
 Number of Electrons    NEL             ....    2
 Basis Dimension        Dim             ....    4

ORBITAL ENERGIES
----------------

  NO   OCC          E(Eh)            E(eV)
   0   2.0000      -0.430343       -11.7102
   1   0.0000       0.103715         2.8222
   2   0.0000       0.584669        15.9097
   3   0.0000       1.110828        30.2272

MULLIKEN ATOMIC CHARGES
-----------------------
   0 H :    0.000000
   1 H :   -0.000000
Sum of atomic charges:   -0.0000000

LOEWDIN ATOMIC CHARGES
----------------------
   0 H :   -0.000000
   1 H :   -0.000000

  Mayer bond orders larger than 0.100000
B(  0-H ,  1-H ) :   1.0000

FINAL SINGLE POINT ENERGY        -1.168716429503

DIPOLE MOMENT
-------------
                                X             Y             Z
Electronic contribution:     -0.00000       0.00000      -0.00000
Nuclear contribution   :      0.00000      -0.00000       0.00000
                        -----------------------------------------
Total Dipole Moment    :     -0.00000       0.00000       0.00000
                        -----------------------------------------
Magnitude (a.u.)       :      0.00000
Magnitude (Debye)      :      0.00000

VIBRATIONAL FREQUENCIES
-----------------------

Scaling factor for frequencies =  1.000000000  (already applied!)

   0:         0.00 cm**-1
   1:         0.00 cm**-1
   2:         0.00 cm**-1
   3:         0.00 cm**-1
   4:         0.00 cm**-1
   5:      4450.37 cm**-1

IR SPECTRUM
-----------

 Mode    freq (cm**-1)   T**2         TX         TY         TZ
-------------------------------------------------------------------
   5:      4450.37    0.000000  (  0.000000   0.000000   0.000000)

--------------------------
THERMOCHEMISTRY AT 298.15K
--------------------------

Temperature         ... 298.15 K
Pressure            ... 1.00 atm
Total Mass          ... 2.02 AMU
The molecule is recognized as being linear

Throughout the following assumptions are being made:
  (1) The electronic state is orbitally nondegenerate
  (2) There are no thermally accessible electronically excited states
  (3) Hindered rotations indicated by low frequency modes are not
      treated as such but are treated as vibrations and this may
      cause some error
  (4) All equations used are the standard statistical mechanics
      equations for an ideal gas
  (5) All vibrations are strictly harmonic

freq.    4450.37  E(vib)   ...       0.00

------------
INNER ENERGY
------------

The inner energy is: U= E(el) + E(ZPE) + E(vib) + E(rot) + E(trans)
    E(el)   - is the total energy from the electronic structure calculation
              = E(kin-el) + E(nuc-el) + E(el-el) + E(nuc-nuc)
    E(ZPE)  - the the zero temperature vibrational energy from the frequency calculation
    E(vib)  - the the finite temperature correction to E(ZPE) due to population
              of excited vibrational states
    E(rot)  - is the rotational thermal energy
    E(trans)- is the translational thermal energy

Summary of contributions to the inner energy U:
Electronic energy                ...     -1.16871643 Eh
Zero point energy                ...      0.01013868 Eh       6.36 kcal/mol
Thermal vibrational correction   ...      0.00000000 Eh       0.00 kcal/mol
Thermal rotational correction    ...      0.00094418 Eh       0.59 kcal/mol
Thermal translational correction ...      0.00141627 Eh       0.89 kcal/mol
-----------------------------------------------------------------------
Total thermal energy                     -1.15621729 Eh

Summary of corrections to the electronic energy:
(perhaps to be used in another calculation)
Total thermal correction                  0.00236045 Eh       1.48 kcal/mol
Non-thermal (ZPE) correction              0.01013868 Eh       6.36 kcal/mol
-----------------------------------------------------------------------
Total correction                          0.01249914 Eh       7.84 kcal/mol

--------
ENTHALPY
--------

The enthalpy is H = U + kB*T
                kB is Boltzmann's constant
Total free energy                 ...     -1.15621729 Eh
Thermal Enthalpy correction       ...      0.00094421 Eh       0.59 kcal/mol
-----------------------------------------------------------------------
Total Enthalpy                    ...     -1.15527308 Eh

Note: Rotational entropy computed according to Herzberg
Infrared and Raman Spectra, Chapter V,1, Van Nostrand Reinhold, 1945
Point Group:  Dinfh, Symmetry Number:   2
Rotational constants in cm-1:     0.000000    60.591892    60.591892

Vibrational entropy computed according to the QRRHO of S. Grimme
Chem.Eur.J. 2012 18 9955

-------
ENTROPY
-------

The entropy contributions are T*S = T*(S(el)+S(vib)+S(rot)+S(trans))
     S(el)   - electronic entropy
     S(vib)  - vibrational entropy
     S(rot)  - rotational entropy
     S(trans)- translational entropy
The entropies will be listed as mutliplied by the temperature to get
units of energy

Electronic entropy                ...      0.00000000 Eh      0.00 kcal/mol
Vibrational entropy               ...     -0.00000000 Eh     -0.00 kcal/mol
Rotational entropy                ...      0.00145074 Eh      0.91 kcal/mol
Translational entropy             ...      0.01334204 Eh      8.37 kcal/mol
-----------------------------------------------------------------------
Final entropy term                ...      0.01479278 Eh      9.28 kcal/mol

In case the symmetry of your molecule has not been determined correctly
or in case you have a reason to use a different symmetry number we print
out the resulting rotational entropy values for sn=1,12 :
 --------------------------------------------------------
|  sn= 1 | S(rot)=              nan Eh       nan kcal/mol|
|  sn= 2 | S(rot)=              nan Eh       nan kcal/mol|
|  sn= 3 | S(rot)=              nan Eh       nan kcal/mol|
|  sn= 4 | S(rot)=              nan Eh       nan kcal/mol|
|  sn= 5 | S(rot)=              nan Eh       nan kcal/mol|
|  sn= 6 | S(rot)=              nan Eh       nan kcal/mol|
|  sn= 7 | S(rot)=              nan Eh       nan kcal/mol|
|  sn= 8 | S(rot)=              nan Eh       nan kcal/mol|
|  sn= 9 | S(rot)=              nan Eh       nan kcal/mol|
|  sn=10 | S(rot)=              nan Eh       nan kcal/mol|
|  sn=11 | S(rot)=              nan Eh       nan kcal/mol|
|  sn=12 | S(rot)=              nan Eh       nan kcal/mol|
 --------------------------------------------------------

-------------------
GIBBS FREE ENERGY
-------------------

The Gibbs free energy is G = H - T*S

Total enthalpy                    ...     -1.15527308 Eh
Total entropy correction          ...     -0.01479278 Eh     -9.28 kcal/mol
-----------------------------------------------------------------------
Final Gibbs free energy         ...     -1.17006586 Eh

For completeness - the Gibbs free energy minus the electronic energy
G-E(el)                           ...     -0.00134943 Eh     -0.85 kcal/mol

                             ****ORCA TERMINATED NORMALLY****
TOTAL RUN TIME: 0 days 0 hours 0 minutes 13 seconds 543 msec
