                         Program Version 4.2.1 -  RELEASE  -
|  1> ! DFT B3LYP 6-31G Opt Freq
|  2>
|  3> *xyzfile 0 1 ../single_point_energy/water/water.xyz
|  4> %base "frequencyWaterDFT""                         ****END OF INPUT****
 Total Charge           Charge          ....    0
 Multiplicity           Mult            ....    1
 Number of Electrons    NEL             ....   10
FINAL SINGLE POINT ENERGY       -76.121062190091
FINAL SINGLE POINT ENERGY       -76.161104687146
FINAL SINGLE POINT ENERGY       -76.203400157140
FINAL SINGLE POINT ENERGY       -76.246751767805
FINAL SINGLE POINT ENERGY       -76.288817596736
FINAL SINGLE POINT ENERGY       -76.324981660067
FINAL SINGLE POINT ENERGY       -76.346502340797
FINAL SINGLE POINT ENERGY       -76.348069592365
FINAL SINGLE POINT ENERGY       -76.347452461771
FINAL SINGLE POINT ENERGY       -76.342393854110
FINAL SINGLE POINT ENERGY       -76.348829287516
FINAL SINGLE POINT ENERGY       -76.348901197140
FINAL SINGLE POINT ENERGY       -76.348979439673
FINAL SINGLE POINT ENERGY       -76.348981247025
FINAL SINGLE POINT ENERGY       -76.348981877040
                    ***********************HURRAY********************

CARTESIAN COORDINATES (ANGSTROEM)
---------------------------------
  O     -2.961058    2.014164   -0.132624
  H     -2.190606    1.699434    0.377556
  H     -2.639846    2.377961   -0.979442

 Multiplicity           Mult            ....    1
 Number of Electrons    NEL             ....   10
 Basis Dimension        Dim             ....   13

ORBITAL ENERGIES
----------------

  NO   OCC          E(Eh)            E(eV)
   0   2.0000     -19.130442      -520.5658
   1   2.0000      -1.002899       -27.2903
   2   2.0000      -0.525922       -14.3111
   3   2.0000      -0.345082        -9.3902
   4   2.0000      -0.286543        -7.7972
   5   0.0000       0.055806         1.5186
   6   0.0000       0.145746         3.9659
   7   0.0000       0.825374        22.4596
   8   0.0000       0.853982        23.2380
   9   0.0000       0.892174        24.2773

MULLIKEN ATOMIC CHARGES
-----------------------
   0 O :   -0.718291
   1 H :    0.359053
   2 H :    0.359238
Sum of atomic charges:    0.0000000

LOEWDIN ATOMIC CHARGES
----------------------
   0 O :   -0.558651
   1 H :    0.279316
   2 H :    0.279335

  Mayer bond orders larger than 0.100000
B(  0-O ,  1-H ) :   0.8235 B(  0-O ,  2-H ) :   0.8232

FINAL SINGLE POINT ENERGY       -76.348981878066

DIPOLE MOMENT
-------------
                                X             Y             Z
Electronic contribution:     -0.00709      -0.00054       0.00242
Nuclear contribution   :      0.90866       0.04084      -0.28020
                        -----------------------------------------
Total Dipole Moment    :      0.90156       0.04031      -0.27778
                        -----------------------------------------
Magnitude (a.u.)       :      0.94425
Magnitude (Debye)      :      2.40009

VIBRATIONAL FREQUENCIES
-----------------------

Scaling factor for frequencies =  1.000000000  (already applied!)

   0:         0.00 cm**-1
   1:         0.00 cm**-1
   2:         0.00 cm**-1
   3:         0.00 cm**-1
   4:         0.00 cm**-1
   5:         0.00 cm**-1
   6:      1618.36 cm**-1
   7:      3613.28 cm**-1
   8:      3778.10 cm**-1

IR SPECTRUM
-----------

 Mode    freq (cm**-1)   T**2         TX         TY         TZ
-------------------------------------------------------------------
   6:      1618.36   68.320035  ( -7.891177  -0.357126   2.433479)
   7:      3613.28    4.431171  ( -2.005276  -0.093671   0.633454)
   8:      3778.10    8.812412  (  0.851819  -1.276460   2.541155)

--------------------------
THERMOCHEMISTRY AT 298.15K
--------------------------

Temperature         ... 298.15 K
Pressure            ... 1.00 atm
Total Mass          ... 18.02 AMU

Throughout the following assumptions are being made:
  (1) The electronic state is orbitally nondegenerate
  (2) There are no thermally accessible electronically excited states
  (3) Hindered rotations indicated by low frequency modes are not
      treated as such but are treated as vibrations and this may
      cause some error
  (4) All equations used are the standard statistical mechanics
      equations for an ideal gas
  (5) All vibrations are strictly harmonic

freq.    1618.36  E(vib)   ...       0.00
freq.    3613.28  E(vib)   ...       0.00
freq.    3778.10  E(vib)   ...       0.00

------------
INNER ENERGY
------------

The inner energy is: U= E(el) + E(ZPE) + E(vib) + E(rot) + E(trans)
    E(el)   - is the total energy from the electronic structure calculation
              = E(kin-el) + E(nuc-el) + E(el-el) + E(nuc-nuc)
    E(ZPE)  - the the zero temperature vibrational energy from the frequency calculation
    E(vib)  - the the finite temperature correction to E(ZPE) due to population
              of excited vibrational states
    E(rot)  - is the rotational thermal energy
    E(trans)- is the translational thermal energy

Summary of contributions to the inner energy U:
Electronic energy                ...    -76.34898188 Eh
Zero point energy                ...      0.02052571 Eh      12.88 kcal/mol
Thermal vibrational correction   ...      0.00000299 Eh       0.00 kcal/mol
Thermal rotational correction    ...      0.00141627 Eh       0.89 kcal/mol
Thermal translational correction ...      0.00141627 Eh       0.89 kcal/mol
-----------------------------------------------------------------------
Total thermal energy                    -76.32562063 Eh

Summary of corrections to the electronic energy:
(perhaps to be used in another calculation)
Total thermal correction                  0.00283554 Eh       1.78 kcal/mol
Non-thermal (ZPE) correction              0.02052571 Eh      12.88 kcal/mol
-----------------------------------------------------------------------
Total correction                          0.02336125 Eh      14.66 kcal/mol

--------
ENTHALPY
--------

The enthalpy is H = U + kB*T
                kB is Boltzmann's constant
Total free energy                 ...    -76.32562063 Eh
Thermal Enthalpy correction       ...      0.00094421 Eh       0.59 kcal/mol
-----------------------------------------------------------------------
Total Enthalpy                    ...    -76.32467642 Eh

Note: Rotational entropy computed according to Herzberg
Infrared and Raman Spectra, Chapter V,1, Van Nostrand Reinhold, 1945
Point Group:  Cs, Symmetry Number:   1
Rotational constants in cm-1:    28.805694    13.359526     9.126726

Vibrational entropy computed according to the QRRHO of S. Grimme
Chem.Eur.J. 2012 18 9955

-------
ENTROPY
-------

The entropy contributions are T*S = T*(S(el)+S(vib)+S(rot)+S(trans))
     S(el)   - electronic entropy
     S(vib)  - vibrational entropy
     S(rot)  - rotational entropy
     S(trans)- translational entropy
The entropies will be listed as mutliplied by the temperature to get
units of energy

Electronic entropy                ...      0.00000000 Eh      0.00 kcal/mol
Vibrational entropy               ...      0.00000338 Eh      0.00 kcal/mol
Rotational entropy                ...      0.00565666 Eh      3.55 kcal/mol
Translational entropy             ...      0.01644380 Eh     10.32 kcal/mol
-----------------------------------------------------------------------
Final entropy term                ...      0.02210384 Eh     13.87 kcal/mol

In case the symmetry of your molecule has not been determined correctly
or in case you have a reason to use a different symmetry number we print
out the resulting rotational entropy values for sn=1,12 :
 --------------------------------------------------------
|  sn= 1 | S(rot)=       0.00565666 Eh      3.55 kcal/mol|
|  sn= 2 | S(rot)=       0.00500220 Eh      3.14 kcal/mol|
|  sn= 3 | S(rot)=       0.00461937 Eh      2.90 kcal/mol|
|  sn= 4 | S(rot)=       0.00434775 Eh      2.73 kcal/mol|
|  sn= 5 | S(rot)=       0.00413706 Eh      2.60 kcal/mol|
|  sn= 6 | S(rot)=       0.00396491 Eh      2.49 kcal/mol|
|  sn= 7 | S(rot)=       0.00381937 Eh      2.40 kcal/mol|
|  sn= 8 | S(rot)=       0.00369329 Eh      2.32 kcal/mol|
|  sn= 9 | S(rot)=       0.00358208 Eh      2.25 kcal/mol|
|  sn=10 | S(rot)=       0.00348260 Eh      2.19 kcal/mol|
|  sn=11 | S(rot)=       0.00339261 Eh      2.13 kcal/mol|
|  sn=12 | S(rot)=       0.00331046 Eh      2.08 kcal/mol|
 --------------------------------------------------------

-------------------
GIBBS FREE ENERGY
-------------------

The Gibbs free energy is G = H - T*S

Total enthalpy                    ...    -76.32467642 Eh
Total entropy correction          ...     -0.02210384 Eh    -13.87 kcal/mol
-----------------------------------------------------------------------
Final Gibbs free energy         ...    -76.34678026 Eh

For completeness - the Gibbs free energy minus the electronic energy
G-E(el)                           ...      0.00220162 Eh      1.38 kcal/mol

                             ****ORCA TERMINATED NORMALLY****
TOTAL RUN TIME: 0 days 0 hours 0 minutes 19 seconds 183 msec
