                         Program Version 4.2.1 -  RELEASE  -
|  1> ! HF 6-31G* Opt Freq
|  2>
|  3> *xyzfile 0 1 ../single_point_energy/water/water.xyz
|  4> %base "frequencyHFTWater""                         ****END OF INPUT****
 Total Charge           Charge          ....    0
 Multiplicity           Mult            ....    1
 Number of Electrons    NEL             ....   10
FINAL SINGLE POINT ENERGY       -75.693571317063
FINAL SINGLE POINT ENERGY       -75.745905123250
FINAL SINGLE POINT ENERGY       -75.801335393647
FINAL SINGLE POINT ENERGY       -75.858789228695
FINAL SINGLE POINT ENERGY       -75.915743415181
FINAL SINGLE POINT ENERGY       -75.966927997095
FINAL SINGLE POINT ENERGY       -76.002228904208
FINAL SINGLE POINT ENERGY       -76.003664400437
FINAL SINGLE POINT ENERGY       -75.989805950256
FINAL SINGLE POINT ENERGY       -76.001382316970
FINAL SINGLE POINT ENERGY       -76.007594031958
FINAL SINGLE POINT ENERGY       -76.009204426734
FINAL SINGLE POINT ENERGY       -76.009337409704
FINAL SINGLE POINT ENERGY       -76.009341292695
                    ***********************HURRAY********************

CARTESIAN COORDINATES (ANGSTROEM)
---------------------------------
  O     -2.961309    2.013331   -0.130787
  H     -2.197434    1.715631    0.344337
  H     -2.632767    2.362598   -0.948060

 Multiplicity           Mult            ....    1
 Number of Electrons    NEL             ....   10
 Basis Dimension        Dim             ....   18

ORBITAL ENERGIES
----------------

  NO   OCC          E(Eh)            E(eV)
   0   2.0000     -20.552255      -559.2553
   1   2.0000      -1.345491       -36.6127
   2   2.0000      -0.714131       -19.4325
   3   2.0000      -0.570543       -15.5253
   4   2.0000      -0.497861       -13.5475
   5   0.0000       0.217058         5.9065
   6   0.0000       0.307167         8.3584
   7   0.0000       1.031838        28.0777
   8   0.0000       1.168546        31.7978
   9   0.0000       1.168939        31.8084

MULLIKEN ATOMIC CHARGES
-----------------------
   0 O :   -0.900301
   1 H :    0.450150
   2 H :    0.450151
Sum of atomic charges:   -0.0000000

LOEWDIN ATOMIC CHARGES
----------------------
   0 O :   -0.649923
   1 H :    0.324962
   2 H :    0.324961

  Mayer bond orders larger than 0.100000
B(  0-O ,  1-H ) :   0.7681 B(  0-O ,  2-H ) :   0.7681

FINAL SINGLE POINT ENERGY       -76.009341329449

DIPOLE MOMENT
-------------
                                X             Y             Z
Electronic contribution:     -0.08759      -0.00413       0.02743
Nuclear contribution   :      0.90928       0.04292      -0.28479
                        -----------------------------------------
Total Dipole Moment    :      0.82170       0.03879      -0.25736
                        -----------------------------------------
Magnitude (a.u.)       :      0.86193
Magnitude (Debye)      :      2.19085

VIBRATIONAL FREQUENCIES
-----------------------

Scaling factor for frequencies =  1.000000000  (already applied!)

   0:         0.00 cm**-1
   1:         0.00 cm**-1
   2:         0.00 cm**-1
   3:         0.00 cm**-1
   4:         0.00 cm**-1
   5:         0.00 cm**-1
   6:      1826.28 cm**-1
   7:      4055.94 cm**-1
   8:      4174.05 cm**-1

IR SPECTRUM
-----------

 Mode    freq (cm**-1)   T**2         TX         TY         TZ
-------------------------------------------------------------------
   6:      1826.28  110.127349  (-10.005103  -0.471923   3.130903)
   7:      4055.94   18.300922  (  4.078571   0.192423  -1.276382)
   8:      4174.05   59.722723  (  2.228443  -3.311909   6.617252)

--------------------------
THERMOCHEMISTRY AT 298.15K
--------------------------

Temperature         ... 298.15 K
Pressure            ... 1.00 atm
Total Mass          ... 18.02 AMU

Throughout the following assumptions are being made:
  (1) The electronic state is orbitally nondegenerate
  (2) There are no thermally accessible electronically excited states
  (3) Hindered rotations indicated by low frequency modes are not
      treated as such but are treated as vibrations and this may
      cause some error
  (4) All equations used are the standard statistical mechanics
      equations for an ideal gas
  (5) All vibrations are strictly harmonic

freq.    1826.28  E(vib)   ...       0.00
freq.    4055.94  E(vib)   ...       0.00
freq.    4174.05  E(vib)   ...       0.00

------------
INNER ENERGY
------------

The inner energy is: U= E(el) + E(ZPE) + E(vib) + E(rot) + E(trans)
    E(el)   - is the total energy from the electronic structure calculation
              = E(kin-el) + E(nuc-el) + E(el-el) + E(nuc-nuc)
    E(ZPE)  - the the zero temperature vibrational energy from the frequency calculation
    E(vib)  - the the finite temperature correction to E(ZPE) due to population
              of excited vibrational states
    E(rot)  - is the rotational thermal energy
    E(trans)- is the translational thermal energy

Summary of contributions to the inner energy U:
Electronic energy                ...    -76.00934133 Eh
Zero point energy                ...      0.02290987 Eh      14.38 kcal/mol
Thermal vibrational correction   ...      0.00000124 Eh       0.00 kcal/mol
Thermal rotational correction    ...      0.00141627 Eh       0.89 kcal/mol
Thermal translational correction ...      0.00141627 Eh       0.89 kcal/mol
-----------------------------------------------------------------------
Total thermal energy                    -75.98359767 Eh

Summary of corrections to the electronic energy:
(perhaps to be used in another calculation)
Total thermal correction                  0.00283378 Eh       1.78 kcal/mol
Non-thermal (ZPE) correction              0.02290987 Eh      14.38 kcal/mol
-----------------------------------------------------------------------
Total correction                          0.02574366 Eh      16.15 kcal/mol

--------
ENTHALPY
--------

The enthalpy is H = U + kB*T
                kB is Boltzmann's constant
Total free energy                 ...    -75.98359767 Eh
Thermal Enthalpy correction       ...      0.00094421 Eh       0.59 kcal/mol
-----------------------------------------------------------------------
Total Enthalpy                    ...    -75.98265346 Eh

Note: Rotational entropy computed according to Herzberg
Infrared and Raman Spectra, Chapter V,1, Van Nostrand Reinhold, 1945
Point Group:  Cs, Symmetry Number:   1
Rotational constants in cm-1:    28.682031    14.680515     9.710384

Vibrational entropy computed according to the QRRHO of S. Grimme
Chem.Eur.J. 2012 18 9955

-------
ENTROPY
-------

The entropy contributions are T*S = T*(S(el)+S(vib)+S(rot)+S(trans))
     S(el)   - electronic entropy
     S(vib)  - vibrational entropy
     S(rot)  - rotational entropy
     S(trans)- translational entropy
The entropies will be listed as mutliplied by the temperature to get
units of energy

Electronic entropy                ...      0.00000000 Eh      0.00 kcal/mol
Vibrational entropy               ...      0.00000138 Eh      0.00 kcal/mol
Rotational entropy                ...      0.00558491 Eh      3.50 kcal/mol
Translational entropy             ...      0.01644380 Eh     10.32 kcal/mol
-----------------------------------------------------------------------
Final entropy term                ...      0.02203009 Eh     13.82 kcal/mol

In case the symmetry of your molecule has not been determined correctly
or in case you have a reason to use a different symmetry number we print
out the resulting rotational entropy values for sn=1,12 :
 --------------------------------------------------------
|  sn= 1 | S(rot)=       0.00558491 Eh      3.50 kcal/mol|
|  sn= 2 | S(rot)=       0.00493046 Eh      3.09 kcal/mol|
|  sn= 3 | S(rot)=       0.00454762 Eh      2.85 kcal/mol|
|  sn= 4 | S(rot)=       0.00427600 Eh      2.68 kcal/mol|
|  sn= 5 | S(rot)=       0.00406531 Eh      2.55 kcal/mol|
|  sn= 6 | S(rot)=       0.00389317 Eh      2.44 kcal/mol|
|  sn= 7 | S(rot)=       0.00374762 Eh      2.35 kcal/mol|
|  sn= 8 | S(rot)=       0.00362154 Eh      2.27 kcal/mol|
|  sn= 9 | S(rot)=       0.00351033 Eh      2.20 kcal/mol|
|  sn=10 | S(rot)=       0.00341085 Eh      2.14 kcal/mol|
|  sn=11 | S(rot)=       0.00332086 Eh      2.08 kcal/mol|
|  sn=12 | S(rot)=       0.00323871 Eh      2.03 kcal/mol|
 --------------------------------------------------------

-------------------
GIBBS FREE ENERGY
-------------------

The Gibbs free energy is G = H - T*S

Total enthalpy                    ...    -75.98265346 Eh
Total entropy correction          ...     -0.02203009 Eh    -13.82 kcal/mol
-----------------------------------------------------------------------
Final Gibbs free energy         ...    -76.00468356 Eh

For completeness - the Gibbs free energy minus the electronic energy
G-E(el)                           ...      0.00465777 Eh      2.92 kcal/mol

                             ****ORCA TERMINATED NORMALLY****
TOTAL RUN TIME: 0 days 0 hours 0 minutes 19 seconds 14 msec
