                         Program Version 4.2.1 -  RELEASE  -
|  1> ! HF 3-21G Opt
|  2> %geom Scan
|  3> B 1 0 = 0.5, 10.0, 50
|  4> # Scan the bond between atom 0 and atom 1
|  5> # from distance 0.5  ̊A to 10.0  ̊A in 50 points.
|  6> end
|  7> end
|  8> *xyzfile 0 1 water.xyz
|  9>
| 10>
| 11>
| 12>                          ****END OF INPUT****
 Total Charge           Charge          ....    0
 Multiplicity           Mult            ....    1
 Number of Electrons    NEL             ....   10
FINAL SINGLE POINT ENERGY       -74.766793520694
FINAL SINGLE POINT ENERGY       -74.790989762082
FINAL SINGLE POINT ENERGY       -74.798343364131
FINAL SINGLE POINT ENERGY       -74.799437862089
FINAL SINGLE POINT ENERGY       -74.799565047434
FINAL SINGLE POINT ENERGY       -74.799566484985
                    ***********************HURRAY********************
FINAL SINGLE POINT ENERGY       -74.799566491761
FINAL SINGLE POINT ENERGY       -75.443400705871
FINAL SINGLE POINT ENERGY       -75.443705372123
FINAL SINGLE POINT ENERGY       -75.443859174610
                    ***********************HURRAY********************
FINAL SINGLE POINT ENERGY       -75.142300233698
FINAL SINGLE POINT ENERGY       -75.142300487202
FINAL SINGLE POINT ENERGY       -75.140706549252
FINAL SINGLE POINT ENERGY       -75.141735537304
FINAL SINGLE POINT ENERGY       -75.141736043290
FINAL SINGLE POINT ENERGY       -75.141736242490
FINAL SINGLE POINT ENERGY       -75.139684426377
FINAL SINGLE POINT ENERGY       -75.141194276982
FINAL SINGLE POINT ENERGY       -75.141194967413

CARTESIAN COORDINATES (ANGSTROEM)
---------------------------------
  O     -3.256318    2.996869   -0.778390
  H      6.411430    1.504737    1.297230
  H     -2.474732    3.344094   -1.261399

 Multiplicity           Mult            ....    1
 Number of Electrons    NEL             ....   10
 Basis Dimension        Dim             ....   13

ORBITAL ENERGIES
----------------

  NO   OCC          E(Eh)            E(eV)
   0   2.0000     -20.496143      -557.7284
   1   2.0000      -1.270671       -34.5767
   2   2.0000      -0.608421       -16.5560
   3   2.0000      -0.500698       -13.6247
   4   2.0000      -0.232952        -6.3389
   5   0.0000      -0.179980        -4.8975
   6   0.0000       0.279952         7.6179
   7   0.0000       1.118446        30.4345
   8   0.0000       1.198909        32.6240
   9   0.0000       1.758803        47.8595

MULLIKEN ATOMIC CHARGES
-----------------------
   0 O :   -0.413383
   1 H :    0.036241
   2 H :    0.377143
Sum of atomic charges:   -0.0000000

LOEWDIN ATOMIC CHARGES
----------------------
   0 O :   -0.267349
   1 H :    0.036241
   2 H :    0.231108

  Mayer bond orders larger than 0.100000
B(  0-O ,  1-H ) :   0.9987 B(  0-O ,  2-H ) :   0.8271

FINAL SINGLE POINT ENERGY       -75.141195126873

DIPOLE MOMENT
-------------
                                X             Y             Z
Electronic contribution:     -7.40671       1.12953      -1.57123
Nuclear contribution   :      8.69761      -0.95297       1.32563
                        -----------------------------------------
Total Dipole Moment    :      1.29091       0.17656      -0.24560
                        -----------------------------------------
Magnitude (a.u.)       :      1.32587
Magnitude (Debye)      :      3.37010

Rotational constants in cm-1:    29.502325     0.177775     0.176710
Rotational constants in MHz : 884457.462372  5329.560871  5297.638379

                             ****ORCA TERMINATED NORMALLY****
TOTAL RUN TIME: 0 days 0 hours 5 minutes 0 seconds 469 msec
